version 2
run General-0-20181020-23:03:17-13250
attr configname General
attr datetime 20181020-23:03:17
attr experiment General
attr inifile omnetpp.ini
attr iterationvars $numUEs=10
attr iterationvarsf numUEs=10-
attr measurement $numUEs=10
attr network vanet_dash_v_0_1.simulations.cars.Highway
attr processid 13250
attr repetition 0
attr replication #0
attr resultdir results
attr runnumber 0
attr seedset 0
itervar numUEs 10
param **.coreDebug false
param *.playgroundSizeX 20000m
param *.playgroundSizeY 20000m
param *.playgroundSizeZ 50m
param *.veinsManager.moduleType "\"lte.corenetwork.nodes.cars.Car\""
param *.veinsManager.moduleName "\"car\""
param *.veinsManager.moduleDisplayString "\"\""
param *.veinsManager.launchConfig "xmldoc(\"square.launchd.xml\")"
param *.veinsManager.updateInterval 0.1s
param *.car[*].mobilityType "\"VeinsInetMobility\""
param **.deployer.positionUpdateInterval 0.001s
param *.car[*].configurator.mcastGroups "\"224.0.0.10\""
param **.channelControl.pMax 10W
param **.channelControl.alpha 1.0
param **.channelControl.carrierFrequency 2100e+6Hz
param **.lteNic.phy.channelModel "xmldoc(\"config_channel.xml\")"
param **.feedbackComputation "xmldoc(\"config_channel.xml\")"
param **.dynamicCellAssociation true
param **.car[*].masterId 1
param **.car[*].macCellId 1
param **.eNodeB1.macCellId 1
param **.eNodeB1.macNodeId 1
param **.eNodeB2.macCellId 2
param **.eNodeB2.macNodeId 2
param **.eNodeBCount 2
param **.rbAllocationType "\"localized\""
param **.feedbackType "\"ALLBANDS\""
param **.feedbackGeneratorType "\"IDEAL\""
param **.maxHarqRtx 3
param **.numUe 10
param **.deployer.ruRange 50
param **.deployer.ruTxPower "\"50,50,50;\""
param **.deployer.antennaCws "\"2;\""
param **.deployer.numRbDl 25
param **.deployer.numRbUl 25
param **.numBands 25
param **.fbDelay 1
param **.enableHandover true
param **.broadcastMessageInterval 0.5s
param *.eNodeB*.numX2Apps 1
param *.eNodeB*.x2App[*].server.localPort "5000 + ancestorIndex(1)"
param *.eNodeB1.x2App[0].client.connectAddress "\"eNodeB2%x2ppp0\""
param *.eNodeB2.x2App[0].client.connectAddress "\"eNodeB1%x2ppp0\""
param **.sctp.nagleEnabled false
param **.sctp.enableHeartbeats false

vector 0 Highway.server.ppp[0].queue queueLength:vector ETV
attr interpolationmode sample-hold
attr title "queue length, vector"
vector 1 Highway.server.ppp[0].ppp txState:vector ETV
attr interpolationmode sample-hold
attr title "tx state, vector"
vector 2 Highway.router.ppp[0].queue queueLength:vector ETV
attr interpolationmode sample-hold
attr title "queue length, vector"
vector 3 Highway.router.ppp[0].ppp txState:vector ETV
attr interpolationmode sample-hold
attr title "tx state, vector"
vector 4 Highway.router.ppp[1].queue queueLength:vector ETV
attr interpolationmode sample-hold
attr title "queue length, vector"
vector 5 Highway.router.ppp[1].ppp txState:vector ETV
attr interpolationmode sample-hold
attr title "tx state, vector"
vector 6 Highway.pgw.ppp[0].queue queueLength:vector ETV
attr interpolationmode sample-hold
attr title "queue length, vector"
vector 7 Highway.pgw.ppp[0].ppp txState:vector ETV
attr interpolationmode sample-hold
attr title "tx state, vector"
vector 8 Highway.pgw.ppp[1].queue queueLength:vector ETV
attr interpolationmode sample-hold
attr title "queue length, vector"
vector 9 Highway.pgw.ppp[1].ppp txState:vector ETV
attr interpolationmode sample-hold
attr title "tx state, vector"
vector 10 Highway.pgw.pppInterface.queue queueLength:vector ETV
attr interpolationmode sample-hold
attr title "queue length, vector"
vector 11 Highway.pgw.pppInterface.ppp txState:vector ETV
attr interpolationmode sample-hold
attr title "tx state, vector"
vector 12 Highway.eNodeB1.pppIf.queue queueLength:vector ETV
attr interpolationmode sample-hold
attr title "queue length, vector"
vector 13 Highway.eNodeB1.pppIf.ppp txState:vector ETV
attr interpolationmode sample-hold
attr title "tx state, vector"
vector 14 Highway.eNodeB1.x2ppp[0].queue queueLength:vector ETV
attr interpolationmode sample-hold
attr title "queue length, vector"
vector 15 Highway.eNodeB1.x2ppp[0].ppp txState:vector ETV
attr interpolationmode sample-hold
attr title "tx state, vector"
vector 16 Highway.eNodeB2.pppIf.queue queueLength:vector ETV
attr interpolationmode sample-hold
attr title "queue length, vector"
vector 17 Highway.eNodeB2.pppIf.ppp txState:vector ETV
attr interpolationmode sample-hold
attr title "tx state, vector"
vector 18 Highway.eNodeB2.x2ppp[0].queue queueLength:vector ETV
attr interpolationmode sample-hold
attr title "queue length, vector"
vector 19 Highway.eNodeB2.x2ppp[0].ppp txState:vector ETV
attr interpolationmode sample-hold
attr title "tx state, vector"
vector 20 Highway.eNodeB1.x2ppp[0].queue rcvdPk:vector(packetBytes) ETV
attr interpolationmode none
attr title "received packets, vector(packetBytes)"
vector 21 Highway.eNodeB1.x2ppp[0].queue queueingTime:vector ETV
attr interpolationmode none
attr title "queueing time, vector"
vector 22 Highway.eNodeB2.x2ppp[0].queue rcvdPk:vector(packetBytes) ETV
attr interpolationmode none
attr title "received packets, vector(packetBytes)"
vector 23 Highway.eNodeB2.x2ppp[0].queue queueingTime:vector ETV
attr interpolationmode none
attr title "queueing time, vector"
vector 24 Highway.eNodeB1.x2ppp[0].ppp rcvdPkFromHL:vector(packetBytes) ETV
attr interpolationmode none
attr source packetReceivedFromUpper
attr title "packets received from higher layer, vector(packetBytes)"
vector 25 Highway.eNodeB1.x2ppp[0].ppp txPk:vector(packetBytes) ETV
attr interpolationmode none
attr source packetSentToLower
attr title "packets transmitted, vector(packetBytes)"
vector 26 Highway.eNodeB2.x2ppp[0].ppp rcvdPkFromHL:vector(packetBytes) ETV
attr interpolationmode none
attr source packetReceivedFromUpper
attr title "packets received from higher layer, vector(packetBytes)"
vector 27 Highway.eNodeB2.x2ppp[0].ppp txPk:vector(packetBytes) ETV
attr interpolationmode none
attr source packetSentToLower
attr title "packets transmitted, vector(packetBytes)"
vector 28 Highway.eNodeB2.x2ppp[0].ppp rxPkOk:vector(packetBytes) ETV
attr interpolationmode none
attr source rxPkOk
attr title "packets received OK, vector(packetBytes)"
vector 29 Highway.eNodeB2.x2ppp[0].ppp passedUpPk:vector(packetBytes) ETV
attr interpolationmode none
attr source packetSentToUpper
attr title "packets passed to higher layer, vector(packetBytes)"
vector 30 Highway.eNodeB1.x2ppp[0].ppp rxPkOk:vector(packetBytes) ETV
attr interpolationmode none
attr source rxPkOk
attr title "packets received OK, vector(packetBytes)"
vector 31 Highway.eNodeB1.x2ppp[0].ppp passedUpPk:vector(packetBytes) ETV
attr interpolationmode none
attr source packetSentToUpper
attr title "packets passed to higher layer, vector(packetBytes)"
vector 32 Highway.car[0].lteNic.phy servingCell:vector ETV
attr source servingCell
attr title "ID of the serving eNodeB for the UE, vector"
attr unit ""
vector 33 Highway.eNodeB1.lteNic.mac receivedPacketFromLowerLayer:vector(packetBytes) ETV
attr interpolationmode none
attr source receivedPacketFromLowerLayer
vector 34 Highway.car[1].lteNic.phy servingCell:vector ETV
attr source servingCell
attr title "ID of the serving eNodeB for the UE, vector"
attr unit ""
vector 35 Highway.car[2].lteNic.phy servingCell:vector ETV
attr source servingCell
attr title "ID of the serving eNodeB for the UE, vector"
attr unit ""
32	498	0.1	1
34	28943	5.1	1
35	65742	10.1	1
0	0	0	0
1	0	0	0
2	0	0	0
3	0	0	0
4	0	0	0
5	0	0	0
6	0	0	0
7	0	0	0
8	0	0	0
9	0	0	0
10	0	0	0
11	0	0	0
12	0	0	0
13	0	0	0
14	0	0	0
15	0	0	0
15	44	0	1
15	48	0.0000000728	0
15	61	0.0000001228	1
15	63	0.0000002596	0
15	74	0.0000003096	1
15	76	0.000000408	0
15	91	0.000000458	1
15	93	0.0000004924	0
16	0	0	0
17	0	0	0
18	0	0	0
19	0	0	0
19	45	0	1
19	49	0.0000000728	0
19	60	0.0000001228	1
19	62	0.0000002596	0
19	75	0.0000003096	1
19	77	0.000000408	0
19	90	0.000000458	1
19	92	0.0000004924	0
20	42	0	84
20	59	0.0000001228	164
20	72	0.0000003096	116
20	89	0.000000458	36
21	42	0	0
21	59	0.0000001228	0
21	72	0.0000003096	0
21	89	0.000000458	0
22	43	0	84
22	58	0.0000001228	164
22	73	0.0000003096	116
22	88	0.000000458	36
23	43	0	0
23	58	0.0000001228	0
23	73	0.0000003096	0
23	88	0.000000458	0
24	44	0	84
24	61	0.0000001228	164
24	74	0.0000003096	116
24	91	0.000000458	36
25	44	0	91
25	61	0.0000001228	171
25	74	0.0000003096	123
25	91	0.000000458	43
26	45	0	84
26	60	0.0000001228	164
26	75	0.0000003096	116
26	90	0.000000458	36
27	45	0	91
27	60	0.0000001228	171
27	75	0.0000003096	123
27	90	0.000000458	43
28	50	0.0000001228	91
28	65	0.0000003096	171
28	78	0.000000458	123
28	95	0.0000005424	43
29	50	0.0000001228	84
29	65	0.0000003096	164
29	78	0.000000458	116
29	95	0.0000005424	36
30	51	0.0000001228	91
30	64	0.0000003096	171
30	79	0.000000458	123
30	94	0.0000005424	43
31	51	0.0000001228	84
31	64	0.0000003096	164
31	79	0.000000458	116
31	94	0.0000005424	36
33	518	0.102	0
33	552	0.108	0
33	586	0.114	0
33	620	0.12	0
33	654	0.126	0
33	688	0.132	0
33	722	0.138	0
33	756	0.144	0
33	790	0.15	0
33	824	0.156	0
33	858	0.162	0
33	892	0.168	0
33	926	0.174	0
33	960	0.18	0
33	994	0.186	0
33	1028	0.192	0
33	1062	0.198	0
33	1097	0.204	0
33	1131	0.21	0
33	1165	0.216	0
33	1199	0.222	0
33	1233	0.228	0
33	1267	0.234	0
33	1301	0.24	0
33	1335	0.246	0
33	1369	0.252	0
33	1403	0.258	0
33	1437	0.264	0
33	1471	0.27	0
33	1505	0.276	0
33	1539	0.282	0
33	1573	0.288	0
33	1607	0.294	0
33	1642	0.3	0
33	1676	0.306	0
33	1710	0.312	0
33	1744	0.318	0
33	1778	0.324	0
33	1812	0.33	0
33	1846	0.336	0
33	1880	0.342	0
33	1914	0.348	0
33	1948	0.354	0
33	1982	0.36	0
33	2016	0.366	0
33	2050	0.372	0
33	2084	0.378	0
33	2118	0.384	0
33	2152	0.39	0
33	2186	0.396	0
33	2221	0.402	0
33	2255	0.408	0
33	2289	0.414	0
33	2323	0.42	0
33	2357	0.426	0
33	2391	0.432	0
33	2425	0.438	0
33	2459	0.444	0
33	2493	0.45	0
33	2527	0.456	0
33	2561	0.462	0
33	2595	0.468	0
33	2629	0.474	0
33	2663	0.48	0
33	2697	0.486	0
33	2731	0.492	0
33	2765	0.498	0
33	2806	0.504	0
33	2840	0.51	0
33	2874	0.516	0
33	2908	0.522	0
33	2942	0.528	0
33	2976	0.534	0
33	3010	0.54	0
33	3044	0.546	0
33	3078	0.552	0
33	3112	0.558	0
33	3146	0.564	0
33	3180	0.57	0
33	3214	0.576	0
33	3248	0.582	0
33	3282	0.588	0
33	3316	0.594	0
33	3351	0.6	0
33	3385	0.606	0
33	3419	0.612	0
33	3453	0.618	0
33	3487	0.624	0
33	3521	0.63	0
33	3555	0.636	0
33	3589	0.642	0
33	3623	0.648	0
33	3657	0.654	0
33	3691	0.66	0
33	3725	0.666	0
33	3759	0.672	0
33	3793	0.678	0
33	3827	0.684	0
33	3861	0.69	0
33	3895	0.696	0
33	3930	0.702	0
33	3964	0.708	0
33	3998	0.714	0
33	4032	0.72	0
33	4066	0.726	0
33	4100	0.732	0
33	4134	0.738	0
33	4168	0.744	0
33	4202	0.75	0
33	4236	0.756	0
33	4270	0.762	0
33	4304	0.768	0
33	4338	0.774	0
33	4372	0.78	0
33	4406	0.786	0
33	4440	0.792	0
33	4474	0.798	0
33	4509	0.804	0
33	4543	0.81	0
33	4577	0.816	0
33	4611	0.822	0
33	4645	0.828	0
33	4679	0.834	0
33	4713	0.84	0
33	4747	0.846	0
33	4781	0.852	0
33	4815	0.858	0
33	4849	0.864	0
33	4883	0.87	0
33	4917	0.876	0
33	4951	0.882	0
33	4985	0.888	0
33	5019	0.894	0
33	5054	0.9	0
33	5088	0.906	0
33	5122	0.912	0
33	5156	0.918	0
33	5190	0.924	0
33	5224	0.93	0
33	5258	0.936	0
33	5292	0.942	0
33	5326	0.948	0
33	5360	0.954	0
33	5394	0.96	0
33	5428	0.966	0
33	5462	0.972	0
33	5496	0.978	0
33	5530	0.984	0
33	5564	0.99	0
33	5598	0.996	0
33	5639	1.002	0
33	5673	1.008	0
33	5707	1.014	0
33	5741	1.02	0
33	5775	1.026	0
33	5809	1.032	0
33	5843	1.038	0
33	5877	1.044	0
33	5911	1.05	0
33	5945	1.056	0
33	5979	1.062	0
33	6013	1.068	0
33	6047	1.074	0
33	6081	1.08	0
33	6115	1.086	0
33	6149	1.092	0
33	6183	1.098	0
33	6218	1.104	0
33	6252	1.11	0
33	6286	1.116	0
33	6320	1.122	0
33	6354	1.128	0
33	6388	1.134	0
33	6422	1.14	0
33	6456	1.146	0
33	6490	1.152	0
33	6524	1.158	0
33	6558	1.164	0
33	6592	1.17	0
33	6626	1.176	0
33	6660	1.182	0
33	6694	1.188	0
33	6728	1.194	0
33	6763	1.2	0
33	6797	1.206	0
33	6831	1.212	0
33	6865	1.218	0
33	6899	1.224	0
33	6933	1.23	0
33	6967	1.236	0
33	7001	1.242	0
33	7035	1.248	0
33	7069	1.254	0
33	7103	1.26	0
33	7137	1.266	0
33	7171	1.272	0
33	7205	1.278	0
33	7239	1.284	0
33	7273	1.29	0
33	7307	1.296	0
33	7342	1.302	0
33	7376	1.308	0
33	7410	1.314	0
33	7444	1.32	0
33	7478	1.326	0
33	7512	1.332	0
33	7546	1.338	0
33	7580	1.344	0
33	7614	1.35	0
33	7648	1.356	0
33	7682	1.362	0
33	7716	1.368	0
33	7750	1.374	0
33	7784	1.38	0
33	7818	1.386	0
33	7852	1.392	0
33	7886	1.398	0
33	7921	1.404	0
33	7955	1.41	0
33	7989	1.416	0
33	8023	1.422	0
33	8057	1.428	0
33	8091	1.434	0
33	8125	1.44	0
33	8159	1.446	0
33	8193	1.452	0
33	8227	1.458	0
33	8261	1.464	0
33	8295	1.47	0
33	8329	1.476	0
33	8363	1.482	0
33	8397	1.488	0
33	8431	1.494	0
33	8468	1.5	0
33	8506	1.506	0
33	8540	1.512	0
33	8574	1.518	0
33	8608	1.524	0
33	8642	1.53	0
33	8676	1.536	0
33	8710	1.542	0
33	8744	1.548	0
33	8778	1.554	0
33	8812	1.56	0
33	8846	1.566	0
33	8880	1.572	0
33	8914	1.578	0
33	8948	1.584	0
33	8982	1.59	0
33	9016	1.596	0
33	9051	1.602	0
33	9085	1.608	0
33	9119	1.614	0
33	9153	1.62	0
33	9187	1.626	0
33	9221	1.632	0
33	9255	1.638	0
33	9289	1.644	0
33	9323	1.65	0
33	9357	1.656	0
33	9391	1.662	0
33	9425	1.668	0
33	9459	1.674	0
33	9493	1.68	0
33	9527	1.686	0
33	9561	1.692	0
33	9595	1.698	0
33	9630	1.704	0
33	9664	1.71	0
33	9698	1.716	0
33	9732	1.722	0
33	9766	1.728	0
33	9800	1.734	0
33	9834	1.74	0
33	9868	1.746	0
33	9902	1.752	0
33	9936	1.758	0
33	9970	1.764	0
33	10004	1.77	0
33	10038	1.776	0
33	10072	1.782	0
33	10106	1.788	0
33	10140	1.794	0
33	10175	1.8	0
33	10209	1.806	0
33	10243	1.812	0
33	10277	1.818	0
33	10311	1.824	0
33	10345	1.83	0
33	10379	1.836	0
33	10413	1.842	0
33	10447	1.848	0
33	10481	1.854	0
33	10515	1.86	0
33	10549	1.866	0
33	10583	1.872	0
33	10617	1.878	0
33	10651	1.884	0
33	10685	1.89	0
33	10719	1.896	0
33	10754	1.902	0
33	10788	1.908	0
33	10822	1.914	0
33	10856	1.92	0
33	10890	1.926	0
33	10924	1.932	0
33	10958	1.938	0
33	10992	1.944	0
33	11026	1.95	0
33	11060	1.956	0
33	11094	1.962	0
33	11128	1.968	0
33	11162	1.974	0
33	11196	1.98	0
33	11230	1.986	0
33	11264	1.992	0
33	11298	1.998	0
33	11339	2.004	0
33	11373	2.01	0
33	11407	2.016	0
33	11441	2.022	0
33	11475	2.028	0
33	11509	2.034	0
33	11543	2.04	0
33	11577	2.046	0
33	11611	2.052	0
33	11645	2.058	0
33	11679	2.064	0
33	11713	2.07	0
33	11747	2.076	0
33	11781	2.082	0
33	11815	2.088	0
33	11849	2.094	0
33	11884	2.1	0
33	11918	2.106	0
33	11952	2.112	0
33	11986	2.118	0
33	12020	2.124	0
33	12054	2.13	0
33	12088	2.136	0
33	12122	2.142	0
33	12156	2.148	0
33	12190	2.154	0
33	12224	2.16	0
33	12258	2.166	0
33	12292	2.172	0
33	12326	2.178	0
33	12360	2.184	0
33	12394	2.19	0
33	12428	2.196	0
33	12463	2.202	0
33	12497	2.208	0
33	12531	2.214	0
33	12565	2.22	0
33	12599	2.226	0
33	12633	2.232	0
33	12667	2.238	0
33	12701	2.244	0
33	12735	2.25	0
33	12769	2.256	0
33	12803	2.262	0
33	12837	2.268	0
33	12871	2.274	0
33	12905	2.28	0
33	12939	2.286	0
33	12973	2.292	0
33	13007	2.298	0
33	13042	2.304	0
33	13076	2.31	0
33	13110	2.316	0
33	13144	2.322	0
33	13178	2.328	0
33	13212	2.334	0
33	13246	2.34	0
33	13280	2.346	0
33	13314	2.352	0
33	13348	2.358	0
33	13382	2.364	0
33	13416	2.37	0
33	13450	2.376	0
33	13484	2.382	0
33	13518	2.388	0
33	13552	2.394	0
33	13587	2.4	0
33	13621	2.406	0
33	13655	2.412	0
33	13689	2.418	0
33	13723	2.424	0
33	13757	2.43	0
33	13791	2.436	0
33	13825	2.442	0
33	13859	2.448	0
33	13893	2.454	0
33	13927	2.46	0
33	13961	2.466	0
33	13995	2.472	0
33	14029	2.478	0
33	14063	2.484	0
33	14097	2.49	0
33	14131	2.496	0
33	14172	2.502	0
33	14206	2.508	0
33	14240	2.514	0
33	14274	2.52	0
33	14308	2.526	0
33	14342	2.532	0
33	14376	2.538	0
33	14410	2.544	0
33	14444	2.55	0
33	14478	2.556	0
33	14512	2.562	0
33	14546	2.568	0
33	14580	2.574	0
33	14614	2.58	0
33	14648	2.586	0
33	14682	2.592	0
33	14716	2.598	0
33	14751	2.604	0
33	14785	2.61	0
33	14819	2.616	0
33	14853	2.622	0
33	14887	2.628	0
33	14921	2.634	0
33	14955	2.64	0
33	14989	2.646	0
33	15023	2.652	0
33	15057	2.658	0
33	15091	2.664	0
33	15125	2.67	0
33	15159	2.676	0
33	15193	2.682	0
33	15227	2.688	0
33	15261	2.694	0
33	15296	2.7	0
33	15330	2.706	0
33	15364	2.712	0
33	15398	2.718	0
33	15432	2.724	0
33	15466	2.73	0
33	15500	2.736	0
33	15534	2.742	0
33	15568	2.748	0
33	15602	2.754	0
33	15636	2.76	0
33	15670	2.766	0
33	15704	2.772	0
33	15738	2.778	0
33	15772	2.784	0
33	15806	2.79	0
33	15840	2.796	0
33	15875	2.802	0
33	15909	2.808	0
33	15943	2.814	0
33	15977	2.82	0
33	16011	2.826	0
33	16045	2.832	0
33	16079	2.838	0
33	16113	2.844	0
33	16147	2.85	0
33	16181	2.856	0
33	16215	2.862	0
33	16249	2.868	0
33	16283	2.874	0
33	16317	2.88	0
33	16351	2.886	0
33	16385	2.892	0
33	16419	2.898	0
33	16454	2.904	0
33	16488	2.91	0
33	16522	2.916	0
33	16556	2.922	0
33	16590	2.928	0
33	16624	2.934	0
33	16658	2.94	0
33	16692	2.946	0
33	16726	2.952	0
33	16760	2.958	0
33	16794	2.964	0
33	16828	2.97	0
33	16862	2.976	0
33	16896	2.982	0
33	16930	2.988	0
33	16964	2.994	0
33	17001	3	0
33	17039	3.006	0
33	17073	3.012	0
33	17107	3.018	0
33	17141	3.024	0
33	17175	3.03	0
33	17209	3.036	0
33	17243	3.042	0
33	17277	3.048	0
33	17311	3.054	0
33	17345	3.06	0
33	17379	3.066	0
33	17413	3.072	0
33	17447	3.078	0
33	17481	3.084	0
33	17515	3.09	0
33	17549	3.096	0
33	17584	3.102	0
33	17618	3.108	0
33	17652	3.114	0
33	17686	3.12	0
33	17720	3.126	0
33	17754	3.132	0
33	17788	3.138	0
33	17822	3.144	0
33	17856	3.15	0
33	17890	3.156	0
33	17924	3.162	0
33	17958	3.168	0
33	17992	3.174	0
33	18026	3.18	0
33	18060	3.186	0
33	18094	3.192	0
33	18128	3.198	0
33	18163	3.204	0
33	18197	3.21	0
33	18231	3.216	0
33	18265	3.222	0
33	18299	3.228	0
33	18333	3.234	0
33	18367	3.24	0
33	18401	3.246	0
33	18435	3.252	0
33	18469	3.258	0
33	18503	3.264	0
33	18537	3.27	0
33	18571	3.276	0
33	18605	3.282	0
33	18639	3.288	0
33	18673	3.294	0
33	18708	3.3	0
33	18742	3.306	0
33	18776	3.312	0
33	18810	3.318	0
33	18844	3.324	0
33	18878	3.33	0
33	18912	3.336	0
33	18946	3.342	0
33	18980	3.348	0
33	19014	3.354	0
33	19048	3.36	0
33	19082	3.366	0
33	19116	3.372	0
33	19150	3.378	0
33	19184	3.384	0
33	19218	3.39	0
33	19252	3.396	0
33	19287	3.402	0
33	19321	3.408	0
33	19355	3.414	0
33	19389	3.42	0
33	19423	3.426	0
33	19457	3.432	0
33	19491	3.438	0
33	19525	3.444	0
33	19559	3.45	0
33	19593	3.456	0
33	19627	3.462	0
33	19661	3.468	0
33	19695	3.474	0
33	19729	3.48	0
33	19763	3.486	0
33	19797	3.492	0
33	19831	3.498	0
33	19872	3.504	0
33	19906	3.51	0
33	19940	3.516	0
33	19974	3.522	0
33	20008	3.528	0
33	20042	3.534	0
33	20076	3.54	0
33	20110	3.546	0
33	20144	3.552	0
33	20178	3.558	0
33	20212	3.564	0
33	20246	3.57	0
33	20280	3.576	0
33	20314	3.582	0
33	20348	3.588	0
33	20382	3.594	0
33	20417	3.6	0
33	20451	3.606	0
33	20485	3.612	0
33	20519	3.618	0
33	20553	3.624	0
33	20587	3.63	0
33	20621	3.636	0
33	20655	3.642	0
33	20689	3.648	0
33	20723	3.654	0
33	20757	3.66	0
33	20791	3.666	0
33	20825	3.672	0
33	20859	3.678	0
33	20893	3.684	0
33	20927	3.69	0
33	20961	3.696	0
33	20996	3.702	0
33	21030	3.708	0
33	21064	3.714	0
33	21098	3.72	0
33	21132	3.726	0
33	21166	3.732	0
33	21200	3.738	0
33	21234	3.744	0
33	21268	3.75	0
33	21302	3.756	0
33	21336	3.762	0
33	21370	3.768	0
33	21404	3.774	0
33	21438	3.78	0
33	21472	3.786	0
33	21506	3.792	0
33	21540	3.798	0
33	21575	3.804	0
33	21609	3.81	0
33	21643	3.816	0
33	21677	3.822	0
33	21711	3.828	0
33	21745	3.834	0
33	21779	3.84	0
33	21813	3.846	0
33	21847	3.852	0
33	21881	3.858	0
33	21915	3.864	0
33	21949	3.87	0
33	21983	3.876	0
33	22017	3.882	0
33	22051	3.888	0
33	22085	3.894	0
33	22120	3.9	0
33	22154	3.906	0
33	22188	3.912	0
33	22222	3.918	0
33	22256	3.924	0
33	22290	3.93	0
33	22324	3.936	0
33	22358	3.942	0
33	22392	3.948	0
33	22426	3.954	0
33	22460	3.96	0
33	22494	3.966	0
33	22528	3.972	0
33	22562	3.978	0
33	22596	3.984	0
33	22630	3.99	0
33	22664	3.996	0
33	22705	4.002	0
33	22739	4.008	0
33	22773	4.014	0
33	22807	4.02	0
33	22841	4.026	0
33	22875	4.032	0
33	22909	4.038	0
33	22943	4.044	0
33	22977	4.05	0
33	23011	4.056	0
33	23045	4.062	0
33	23079	4.068	0
33	23113	4.074	0
33	23147	4.08	0
33	23181	4.086	0
33	23215	4.092	0
33	23249	4.098	0
33	23284	4.104	0
33	23318	4.11	0
33	23352	4.116	0
33	23386	4.122	0
33	23420	4.128	0
33	23454	4.134	0
33	23488	4.14	0
33	23522	4.146	0
33	23556	4.152	0
33	23590	4.158	0
33	23624	4.164	0
33	23658	4.17	0
33	23692	4.176	0
33	23726	4.182	0
33	23760	4.188	0
33	23794	4.194	0
33	23829	4.2	0
33	23863	4.206	0
33	23897	4.212	0
33	23931	4.218	0
33	23965	4.224	0
33	23999	4.23	0
33	24033	4.236	0
33	24067	4.242	0
33	24101	4.248	0
33	24135	4.254	0
33	24169	4.26	0
33	24203	4.266	0
33	24237	4.272	0
33	24271	4.278	0
33	24305	4.284	0
33	24339	4.29	0
33	24373	4.296	0
33	24408	4.302	0
33	24442	4.308	0
33	24476	4.314	0
33	24510	4.32	0
33	24544	4.326	0
33	24578	4.332	0
33	24612	4.338	0
33	24646	4.344	0
33	24680	4.35	0
33	24714	4.356	0
33	24748	4.362	0
33	24782	4.368	0
33	24816	4.374	0
33	24850	4.38	0
33	24884	4.386	0
33	24918	4.392	0
33	24952	4.398	0
33	24987	4.404	0
33	25021	4.41	0
33	25055	4.416	0
33	25089	4.422	0
33	25123	4.428	0
33	25157	4.434	0
33	25191	4.44	0
33	25225	4.446	0
33	25259	4.452	0
33	25293	4.458	0
33	25327	4.464	0
33	25361	4.47	0
33	25395	4.476	0
33	25429	4.482	0
33	25463	4.488	0
33	25497	4.494	0
33	25534	4.5	0
33	25572	4.506	0
33	25606	4.512	0
33	25640	4.518	0
33	25674	4.524	0
33	25708	4.53	0
33	25742	4.536	0
33	25776	4.542	0
33	25810	4.548	0
33	25844	4.554	0
33	25878	4.56	0
33	25912	4.566	0
33	25946	4.572	0
33	25980	4.578	0
33	26014	4.584	0
33	26048	4.59	0
33	26082	4.596	0
33	26117	4.602	0
33	26151	4.608	0
33	26185	4.614	0
33	26219	4.62	0
33	26253	4.626	0
33	26287	4.632	0
33	26321	4.638	0
33	26355	4.644	0
33	26389	4.65	0
33	26423	4.656	0
33	26457	4.662	0
33	26491	4.668	0
33	26525	4.674	0
33	26559	4.68	0
33	26593	4.686	0
33	26627	4.692	0
33	26661	4.698	0
33	26696	4.704	0
33	26730	4.71	0
33	26764	4.716	0
33	26798	4.722	0
33	26832	4.728	0
33	26866	4.734	0
33	26900	4.74	0
33	26934	4.746	0
33	26968	4.752	0
33	27002	4.758	0
33	27036	4.764	0
33	27070	4.77	0
33	27104	4.776	0
33	27138	4.782	0
33	27172	4.788	0
33	27206	4.794	0
33	27241	4.8	0
33	27275	4.806	0
33	27309	4.812	0
33	27343	4.818	0
33	27377	4.824	0
33	27411	4.83	0
33	27445	4.836	0
33	27479	4.842	0
33	27513	4.848	0
33	27547	4.854	0
33	27581	4.86	0
33	27615	4.866	0
33	27649	4.872	0
33	27683	4.878	0
33	27717	4.884	0
33	27751	4.89	0
33	27785	4.896	0
33	27820	4.902	0
33	27854	4.908	0
33	27888	4.914	0
33	27922	4.92	0
33	27956	4.926	0
33	27990	4.932	0
33	28024	4.938	0
33	28058	4.944	0
33	28092	4.95	0
33	28126	4.956	0
33	28160	4.962	0
33	28194	4.968	0
33	28228	4.974	0
33	28262	4.98	0
33	28296	4.986	0
33	28330	4.992	0
33	28364	4.998	0
33	28405	5.004	0
33	28439	5.01	0
33	28473	5.016	0
33	28507	5.022	0
33	28541	5.028	0
33	28575	5.034	0
33	28609	5.04	0
33	28643	5.046	0
33	28677	5.052	0
33	28711	5.058	0
33	28745	5.064	0
33	28779	5.07	0
33	28813	5.076	0
33	28847	5.082	0
33	28881	5.088	0
33	28915	5.094	0
33	28953	5.1	0
33	28968	5.102	0
33	28997	5.106	0
33	29012	5.108	0
33	29041	5.112	0
33	29056	5.114	0
33	29085	5.118	0
33	29100	5.12	0
33	29129	5.124	0
33	29144	5.126	0
33	29173	5.13	0
33	29188	5.132	0
33	29217	5.136	0
33	29232	5.138	0
33	29261	5.142	0
33	29276	5.144	0
33	29305	5.148	0
33	29320	5.15	0
33	29349	5.154	0
33	29364	5.156	0
33	29393	5.16	0
33	29408	5.162	0
33	29437	5.166	0
33	29452	5.168	0
33	29481	5.172	0
33	29496	5.174	0
33	29525	5.178	0
33	29540	5.18	0
33	29569	5.184	0
33	29584	5.186	0
33	29613	5.19	0
33	29628	5.192	0
33	29657	5.196	0
33	29672	5.198	0
33	29702	5.202	0
33	29717	5.204	0
33	29746	5.208	0
33	29761	5.21	0
33	29790	5.214	0
33	29805	5.216	0
33	29834	5.22	0
33	29849	5.222	0
33	29878	5.226	0
33	29893	5.228	0
33	29922	5.232	0
33	29937	5.234	0
33	29966	5.238	0
33	29981	5.24	0
33	30010	5.244	0
33	30025	5.246	0
33	30054	5.25	0
33	30069	5.252	0
33	30098	5.256	0
33	30113	5.258	0
33	30142	5.262	0
33	30157	5.264	0
33	30186	5.268	0
33	30201	5.27	0
33	30230	5.274	0
33	30245	5.276	0
33	30274	5.28	0
33	30289	5.282	0
33	30318	5.286	0
33	30333	5.288	0
33	30362	5.292	0
33	30377	5.294	0
33	30406	5.298	0
33	30422	5.3	0
33	30451	5.304	0
33	30466	5.306	0
33	30495	5.31	0
33	30510	5.312	0
33	30539	5.316	0
33	30554	5.318	0
33	30583	5.322	0
33	30598	5.324	0
33	30627	5.328	0
33	30642	5.33	0
33	30671	5.334	0
33	30686	5.336	0
33	30715	5.34	0
33	30730	5.342	0
33	30759	5.346	0
33	30774	5.348	0
33	30803	5.352	0
33	30818	5.354	0
33	30847	5.358	0
33	30862	5.36	0
33	30891	5.364	0
33	30906	5.366	0
33	30935	5.37	0
33	30950	5.372	0
33	30979	5.376	0
33	30994	5.378	0
33	31023	5.382	0
33	31038	5.384	0
33	31067	5.388	0
33	31082	5.39	0
33	31111	5.394	0
33	31126	5.396	0
33	31156	5.4	0
33	31171	5.402	0
33	31200	5.406	0
33	31215	5.408	0
33	31244	5.412	0
33	31259	5.414	0
33	31288	5.418	0
33	31303	5.42	0
33	31332	5.424	0
33	31347	5.426	0
33	31376	5.43	0
33	31391	5.432	0
33	31420	5.436	0
33	31435	5.438	0
33	31464	5.442	0
33	31479	5.444	0
33	31508	5.448	0
33	31523	5.45	0
33	31552	5.454	0
33	31567	5.456	0
33	31596	5.46	0
33	31611	5.462	0
33	31640	5.466	0
33	31655	5.468	0
33	31684	5.472	0
33	31699	5.474	0
33	31728	5.478	0
33	31743	5.48	0
33	31772	5.484	0
33	31787	5.486	0
33	31816	5.49	0
33	31831	5.492	0
33	31860	5.496	0
33	31875	5.498	0
33	31913	5.502	0
33	31928	5.504	0
33	31957	5.508	0
33	31972	5.51	0
33	32001	5.514	0
33	32016	5.516	0
33	32045	5.52	0
33	32060	5.522	0
33	32089	5.526	0
33	32104	5.528	0
33	32133	5.532	0
33	32148	5.534	0
33	32177	5.538	0
33	32192	5.54	0
33	32221	5.544	0
33	32236	5.546	0
33	32265	5.55	0
33	32280	5.552	0
33	32309	5.556	0
33	32324	5.558	0
33	32353	5.562	0
33	32368	5.564	0
33	32397	5.568	0
33	32412	5.57	0
33	32441	5.574	0
33	32456	5.576	0
33	32485	5.58	0
33	32500	5.582	0
33	32529	5.586	0
33	32544	5.588	0
33	32573	5.592	0
33	32588	5.594	0
33	32617	5.598	0
33	32633	5.6	0
33	32662	5.604	0
33	32677	5.606	0
33	32706	5.61	0
33	32721	5.612	0
33	32750	5.616	0
33	32765	5.618	0
33	32794	5.622	0
33	32809	5.624	0
33	32838	5.628	0
33	32853	5.63	0
33	32882	5.634	0
33	32897	5.636	0
33	32926	5.64	0
33	32941	5.642	0
33	32970	5.646	0
33	32985	5.648	0
33	33014	5.652	0
33	33029	5.654	0
33	33058	5.658	0
33	33073	5.66	0
33	33102	5.664	0
33	33117	5.666	0
33	33146	5.67	0
33	33161	5.672	0
33	33190	5.676	0
33	33205	5.678	0
33	33234	5.682	0
33	33249	5.684	0
33	33278	5.688	0
33	33293	5.69	0
33	33322	5.694	0
33	33337	5.696	0
33	33367	5.7	0
33	33382	5.702	0
33	33411	5.706	0
33	33426	5.708	0
33	33455	5.712	0
33	33470	5.714	0
33	33499	5.718	0
33	33514	5.72	0
33	33543	5.724	0
33	33558	5.726	0
33	33587	5.73	0
33	33602	5.732	0
33	33631	5.736	0
33	33646	5.738	0
33	33675	5.742	0
33	33690	5.744	0
33	33719	5.748	0
33	33734	5.75	0
33	33763	5.754	0
33	33778	5.756	0
33	33807	5.76	0
33	33822	5.762	0
33	33851	5.766	0
33	33866	5.768	0
33	33895	5.772	0
33	33910	5.774	0
33	33939	5.778	0
33	33954	5.78	0
33	33983	5.784	0
33	33998	5.786	0
33	34027	5.79	0
33	34042	5.792	0
33	34071	5.796	0
33	34086	5.798	0
33	34116	5.802	0
33	34131	5.804	0
33	34160	5.808	0
33	34175	5.81	0
33	34204	5.814	0
33	34219	5.816	0
33	34248	5.82	0
33	34263	5.822	0
33	34292	5.826	0
33	34307	5.828	0
33	34336	5.832	0
33	34351	5.834	0
33	34380	5.838	0
33	34395	5.84	0
33	34424	5.844	0
33	34439	5.846	0
33	34468	5.85	0
33	34483	5.852	0
33	34512	5.856	0
33	34527	5.858	0
33	34556	5.862	0
33	34571	5.864	0
33	34600	5.868	0
33	34615	5.87	0
33	34644	5.874	0
33	34659	5.876	0
33	34688	5.88	0
33	34703	5.882	0
33	34732	5.886	0
33	34747	5.888	0
33	34776	5.892	0
33	34791	5.894	0
33	34820	5.898	0
33	34836	5.9	0
33	34865	5.904	0
33	34880	5.906	0
33	34909	5.91	0
33	34924	5.912	0
33	34953	5.916	0
33	34968	5.918	0
33	34997	5.922	0
33	35012	5.924	0
33	35041	5.928	0
33	35056	5.93	0
33	35085	5.934	0
33	35100	5.936	0
33	35129	5.94	0
33	35144	5.942	0
33	35173	5.946	0
33	35188	5.948	0
33	35217	5.952	0
33	35232	5.954	0
33	35261	5.958	0
33	35276	5.96	0
33	35305	5.964	0
33	35320	5.966	0
33	35349	5.97	0
33	35364	5.972	0
33	35393	5.976	0
33	35408	5.978	0
33	35437	5.982	0
33	35452	5.984	0
33	35481	5.988	0
33	35496	5.99	0
33	35525	5.994	0
33	35540	5.996	0
33	35572	6	0
33	35593	6.002	0
33	35622	6.006	0
33	35637	6.008	0
33	35666	6.012	0
33	35681	6.014	0
33	35710	6.018	0
33	35725	6.02	0
33	35754	6.024	0
33	35769	6.026	0
33	35798	6.03	0
33	35813	6.032	0
33	35842	6.036	0
33	35857	6.038	0
33	35886	6.042	0
33	35901	6.044	0
33	35930	6.048	0
33	35945	6.05	0
33	35974	6.054	0
33	35989	6.056	0
33	36018	6.06	0
33	36033	6.062	0
33	36062	6.066	0
33	36077	6.068	0
33	36106	6.072	0
33	36121	6.074	0
33	36150	6.078	0
33	36165	6.08	0
33	36194	6.084	0
33	36209	6.086	0
33	36238	6.09	0
33	36253	6.092	0
33	36282	6.096	0
33	36297	6.098	0
33	36327	6.102	0
33	36342	6.104	0
33	36371	6.108	0
33	36386	6.11	0
33	36415	6.114	0
33	36430	6.116	0
33	36459	6.12	0
33	36474	6.122	0
33	36503	6.126	0
33	36518	6.128	0
33	36547	6.132	0
33	36562	6.134	0
33	36591	6.138	0
33	36606	6.14	0
33	36635	6.144	0
33	36650	6.146	0
33	36679	6.15	0
33	36694	6.152	0
33	36723	6.156	0
33	36738	6.158	0
33	36767	6.162	0
33	36782	6.164	0
33	36811	6.168	0
33	36826	6.17	0
33	36855	6.174	0
33	36870	6.176	0
33	36899	6.18	0
33	36914	6.182	0
33	36943	6.186	0
33	36958	6.188	0
33	36987	6.192	0
33	37002	6.194	0
33	37031	6.198	0
33	37047	6.2	0
33	37076	6.204	0
33	37091	6.206	0
33	37120	6.21	0
33	37135	6.212	0
33	37164	6.216	0
33	37179	6.218	0
33	37208	6.222	0
33	37223	6.224	0
33	37252	6.228	0
33	37267	6.23	0
33	37296	6.234	0
33	37311	6.236	0
33	37340	6.24	0
33	37355	6.242	0
33	37384	6.246	0
33	37399	6.248	0
33	37428	6.252	0
33	37443	6.254	0
33	37472	6.258	0
33	37487	6.26	0
33	37516	6.264	0
33	37531	6.266	0
33	37560	6.27	0
33	37575	6.272	0
33	37604	6.276	0
33	37619	6.278	0
33	37648	6.282	0
33	37663	6.284	0
33	37692	6.288	0
33	37707	6.29	0
33	37736	6.294	0
33	37751	6.296	0
33	37781	6.3	0
33	37796	6.302	0
33	37825	6.306	0
33	37840	6.308	0
33	37869	6.312	0
33	37884	6.314	0
33	37913	6.318	0
33	37928	6.32	0
33	37957	6.324	0
33	37972	6.326	0
33	38001	6.33	0
33	38016	6.332	0
33	38045	6.336	0
33	38060	6.338	0
33	38089	6.342	0
33	38104	6.344	0
33	38133	6.348	0
33	38148	6.35	0
33	38177	6.354	0
33	38192	6.356	0
33	38221	6.36	0
33	38236	6.362	0
33	38265	6.366	0
33	38280	6.368	0
33	38309	6.372	0
33	38324	6.374	0
33	38353	6.378	0
33	38368	6.38	0
33	38397	6.384	0
33	38412	6.386	0
33	38441	6.39	0
33	38456	6.392	0
33	38485	6.396	0
33	38500	6.398	0
33	38530	6.402	0
33	38545	6.404	0
33	38574	6.408	0
33	38589	6.41	0
33	38618	6.414	0
33	38633	6.416	0
33	38662	6.42	0
33	38677	6.422	0
33	38706	6.426	0
33	38721	6.428	0